{
  "_metadata": {
    "description": "2D Materials Expansion - 30 materials for electronics, photonics, energy storage",
    "date": "2025-10-30",
    "version": "1.0",
    "categories": ["TMD", "MXene", "Xene", "other_2D"]
  },

  "MoSe2": {
    "name": "Molybdenum Diselenide",
    "category": "2D_material",
    "subcategory": "TMD",
    "cas_number": "12058-18-3",
    "density": 6900.0,
    "melting_point": 1458.0,
    "bandgap": 1.50,
    "electrical_conductivity": 100.0,
    "thermal_conductivity": 52.0,
    "notes": "Direct bandgap in monolayer, photodetectors, valleytronics",
    "cost_per_kg": 850.0,
    "confidence": 0.95
  },

  "WTe2": {
    "name": "Tungsten Ditelluride",
    "category": "2D_material",
    "subcategory": "TMD",
    "cas_number": "12067-76-4",
    "density": 9500.0,
    "melting_point": 1273.0,
    "electrical_conductivity": 50000.0,
    "thermal_conductivity": 3.0,
    "notes": "Weyl semimetal, extremely large magnetoresistance, topological insulator",
    "cost_per_kg": 1200.0,
    "confidence": 0.92
  },

  "ReS2": {
    "name": "Rhenium Disulfide",
    "category": "2D_material",
    "subcategory": "TMD",
    "cas_number": "12038-63-0",
    "density": 7500.0,
    "bandgap": 1.50,
    "notes": "Anisotropic, layer-independent bandgap, photodetectors",
    "cost_per_kg": 2800.0,
    "confidence": 0.90
  },

  "SnS2": {
    "name": "Tin Disulfide",
    "category": "2D_material",
    "subcategory": "TMD",
    "cas_number": "1315-01-1",
    "density": 5220.0,
    "melting_point": 873.0,
    "bandgap": 2.20,
    "notes": "Earth-abundant, photodetectors, Na-ion battery anodes",
    "cost_per_kg": 250.0,
    "confidence": 0.93
  },

  "SnSe2": {
    "name": "Tin Diselenide",
    "category": "2D_material",
    "subcategory": "TMD",
    "cas_number": "20770-09-6",
    "density": 5890.0,
    "bandgap": 1.00,
    "notes": "p-type semiconductor, thermoelectric, FETs",
    "cost_per_kg": 450.0,
    "confidence": 0.91
  },

  "PtS2": {
    "name": "Platinum Disulfide",
    "category": "2D_material",
    "subcategory": "TMD",
    "cas_number": "12038-20-9",
    "density": 10000.0,
    "bandgap": 0.25,
    "notes": "Metallic to semiconductor transition with layers, catalysis",
    "cost_per_kg": 8500.0,
    "confidence": 0.89
  },

  "PdSe2": {
    "name": "Palladium Diselenide",
    "category": "2D_material",
    "subcategory": "TMD",
    "cas_number": "12137-76-1",
    "density": 8500.0,
    "bandgap": 0.00,
    "electrical_conductivity": 50000.0,
    "notes": "Air-stable, high mobility (1000 cm²/Vs), infrared photodetectors",
    "cost_per_kg": 12000.0,
    "confidence": 0.88
  },

  "Ti3C2Tx": {
    "name": "Titanium Carbide MXene",
    "category": "2D_material",
    "subcategory": "MXene",
    "density": 3600.0,
    "electrical_conductivity": 10000.0,
    "thermal_conductivity": 50.0,
    "notes": "Ti3C2Tx, most studied MXene, supercapacitors, EMI shielding, conductive",
    "cost_per_kg": 1500.0,
    "confidence": 0.94
  },

  "Ti2CTx": {
    "name": "Titanium Carbide MXene (Ti2C)",
    "category": "2D_material",
    "subcategory": "MXene",
    "density": 3400.0,
    "electrical_conductivity": 8000.0,
    "notes": "Ti2C, thinner than Ti3C2, flexible electronics, Li-ion anodes",
    "cost_per_kg": 1800.0,
    "confidence": 0.91
  },

  "V2CTx": {
    "name": "Vanadium Carbide MXene",
    "category": "2D_material",
    "subcategory": "MXene",
    "density": 4200.0,
    "electrical_conductivity": 6000.0,
    "notes": "V2C, high capacity Li-ion anode (280 mAh/g), supercapacitors",
    "cost_per_kg": 2200.0,
    "confidence": 0.89
  },

  "Nb2CTx": {
    "name": "Niobium Carbide MXene",
    "category": "2D_material",
    "subcategory": "MXene",
    "density": 5800.0,
    "electrical_conductivity": 7000.0,
    "notes": "Nb2C, fast Li+ intercalation, supercapacitors, batteries",
    "cost_per_kg": 3500.0,
    "confidence": 0.87
  },

  "Mo2CTx": {
    "name": "Molybdenum Carbide MXene",
    "category": "2D_material",
    "subcategory": "MXene",
    "density": 6800.0,
    "electrical_conductivity": 5000.0,
    "notes": "Mo2C, catalysis, hydrogen evolution reaction, energy storage",
    "cost_per_kg": 2800.0,
    "confidence": 0.88
  },

  "Ti3CNTx": {
    "name": "Titanium Carbonitride MXene",
    "category": "2D_material",
    "subcategory": "MXene",
    "density": 3500.0,
    "electrical_conductivity": 9000.0,
    "notes": "Ti3CN, tunable bandgap, improved stability vs Ti3C2",
    "cost_per_kg": 2000.0,
    "confidence": 0.86
  },

  "Silicene": {
    "name": "Silicene",
    "category": "2D_material",
    "subcategory": "Xene",
    "density": 1500.0,
    "electrical_conductivity": 10000.0,
    "thermal_conductivity": 10.0,
    "notes": "Si analog of graphene, buckled honeycomb, high mobility, unstable in air",
    "cost_per_kg": 8500.0,
    "confidence": 0.85
  },

  "Germanene": {
    "name": "Germanene",
    "category": "2D_material",
    "subcategory": "Xene",
    "density": 2000.0,
    "electrical_conductivity": 8000.0,
    "notes": "Ge analog of graphene, buckled, high spin-orbit coupling, topological",
    "cost_per_kg": 12000.0,
    "confidence": 0.83
  },

  "Phosphorene": {
    "name": "Phosphorene (Black Phosphorus)",
    "category": "2D_material",
    "subcategory": "Xene",
    "cas_number": "7723-14-0",
    "density": 2690.0,
    "bandgap": 0.30,
    "electrical_conductivity": 300.0,
    "thermal_conductivity": 35.0,
    "notes": "Tunable bandgap 0.3-2.0 eV, high mobility 1000 cm²/Vs, air-sensitive",
    "cost_per_kg": 5500.0,
    "confidence": 0.92
  },

  "Antimonene": {
    "name": "Antimonene",
    "category": "2D_material",
    "subcategory": "Xene",
    "cas_number": "7440-36-0",
    "density": 4500.0,
    "bandgap": 2.28,
    "notes": "Buckled honeycomb, Na-ion batteries, thermoelectric",
    "cost_per_kg": 1800.0,
    "confidence": 0.86
  },

  "Bismuthene": {
    "name": "Bismuthene",
    "category": "2D_material",
    "subcategory": "Xene",
    "cas_number": "7440-69-9",
    "density": 6000.0,
    "bandgap": 0.50,
    "notes": "Large spin-orbit coupling, topological insulator, quantum computing",
    "cost_per_kg": 2200.0,
    "confidence": 0.84
  },

  "Stanene": {
    "name": "Stanene",
    "category": "2D_material",
    "subcategory": "Xene",
    "density": 3500.0,
    "notes": "Sn analog of graphene, predicted topological insulator, room-temp quantum spin Hall",
    "cost_per_kg": 950.0,
    "confidence": 0.80
  },

  "BN_Nanosheets": {
    "name": "Boron Nitride Nanosheets (Few-Layer)",
    "category": "2D_material",
    "subcategory": "other_2D",
    "cas_number": "10043-11-5",
    "density": 2100.0,
    "melting_point": 3273.0,
    "bandgap": 5.97,
    "thermal_conductivity": 400.0,
    "dielectric_constant": 4.0,
    "notes": "Insulating, high thermal conductivity, atomically flat substrate",
    "cost_per_kg": 850.0,
    "confidence": 0.94
  },

  "BP_Blue_Phosphorus": {
    "name": "Blue Phosphorus",
    "category": "2D_material",
    "subcategory": "Xene",
    "density": 2000.0,
    "bandgap": 2.00,
    "notes": "Buckled honeycomb, direct bandgap, more stable than black phosphorus",
    "cost_per_kg": 6500.0,
    "confidence": 0.81
  },

  "GaSe": {
    "name": "Gallium Selenide",
    "category": "2D_material",
    "subcategory": "other_2D",
    "cas_number": "12024-24-7",
    "density": 4570.0,
    "melting_point": 1233.0,
    "bandgap": 2.00,
    "notes": "Layered semiconductor, nonlinear optics, photodetectors",
    "cost_per_kg": 1200.0,
    "confidence": 0.90
  },

  "GaTe": {
    "name": "Gallium Telluride",
    "category": "2D_material",
    "subcategory": "other_2D",
    "cas_number": "12024-14-5",
    "density": 5570.0,
    "melting_point": 1097.0,
    "bandgap": 1.70,
    "notes": "p-type, anisotropic, photoconductor",
    "cost_per_kg": 1800.0,
    "confidence": 0.88
  },

  "InSe": {
    "name": "Indium Selenide",
    "category": "2D_material",
    "subcategory": "other_2D",
    "cas_number": "12056-07-4",
    "density": 5670.0,
    "melting_point": 923.0,
    "bandgap": 1.26,
    "electrical_conductivity": 1000.0,
    "notes": "High mobility (1000+ cm²/Vs), photodetectors, FETs",
    "cost_per_kg": 2500.0,
    "confidence": 0.89
  },

  "Bi2Se3": {
    "name": "Bismuth Selenide",
    "category": "2D_material",
    "subcategory": "other_2D",
    "cas_number": "12068-69-8",
    "density": 6820.0,
    "melting_point": 979.0,
    "bandgap": 0.30,
    "electrical_conductivity": 3000.0,
    "thermal_conductivity": 1.5,
    "notes": "3D topological insulator, thermoelectric ZT=0.5, spintronics",
    "cost_per_kg": 850.0,
    "confidence": 0.93
  },

  "Bi2Te3": {
    "name": "Bismuth Telluride",
    "category": "2D_material",
    "subcategory": "other_2D",
    "cas_number": "1304-82-1",
    "density": 7700.0,
    "melting_point": 858.0,
    "bandgap": 0.16,
    "thermal_conductivity": 1.5,
    "notes": "Best room-temp thermoelectric ZT=1.0, Peltier coolers, topological insulator",
    "cost_per_kg": 450.0,
    "confidence": 0.95
  },

  "Sb2Te3": {
    "name": "Antimony Telluride",
    "category": "2D_material",
    "subcategory": "other_2D",
    "cas_number": "1327-50-0",
    "density": 6500.0,
    "melting_point": 893.0,
    "bandgap": 0.28,
    "thermal_conductivity": 1.2,
    "notes": "Thermoelectric, phase-change memory (PCRAM), topological insulator",
    "cost_per_kg": 650.0,
    "confidence": 0.92
  },

  "Graphitic_Carbon_Nitride": {
    "name": "Graphitic Carbon Nitride (g-C3N4)",
    "category": "2D_material",
    "subcategory": "other_2D",
    "cas_number": "24980-69-0",
    "density": 1600.0,
    "bandgap": 2.70,
    "thermal_conductivity": 0.2,
    "notes": "Metal-free photocatalyst, water splitting, CO2 reduction, visible light",
    "cost_per_kg": 120.0,
    "confidence": 0.91
  },

  "MoO3_2D": {
    "name": "Molybdenum Trioxide (2D)",
    "category": "2D_material",
    "subcategory": "other_2D",
    "cas_number": "1313-27-5",
    "density": 4690.0,
    "melting_point": 1068.0,
    "bandgap": 3.00,
    "notes": "Layered oxide, electrochromic, gas sensors, Li-ion cathode",
    "cost_per_kg": 85.0,
    "confidence": 0.90
  },

  "WO3_2D": {
    "name": "Tungsten Trioxide (2D)",
    "category": "2D_material",
    "subcategory": "other_2D",
    "cas_number": "1314-35-8",
    "density": 7160.0,
    "melting_point": 1746.0,
    "bandgap": 2.80,
    "notes": "Electrochromic, photocatalysis, gas sensors, smart windows",
    "cost_per_kg": 95.0,
    "confidence": 0.89
  }
}
