{
  "_metadata": {
    "description": "Lab materials expansion for QuLabInfinite",
    "version": "1.0",
    "date": "2025-10-30",
    "total_materials": 26,
    "copyright": "Copyright (c) 2025 Joshua Hendricks Cole (DBA: Corporation of Light). PATENT PENDING."
  },
  "Niobium": {
    "category": "quantum_material",
    "subcategory": "superconductor",
    "cas_number": "7440-03-1",
    "density": 8570.0,
    "youngs_modulus": 105.0,
    "melting_point": 2750.0,
    "thermal_conductivity": 53.7,
    "electrical_resistivity": 1.52e-07,
    "cost_per_kg": 45.0,
    "notes": "Tc=9.2K primary qubit material",
    "availability": "common",
    "name": "Niobium",
    "poissons_ratio": 0.0,
    "yield_strength": 0.0,
    "corrosion_resistance": "moderate",
    "data_source": "literature",
    "confidence": 0.9
  },
  "Niobium-Titanium": {
    "category": "quantum_material",
    "subcategory": "superconductor",
    "cas_number": "12035-79-9",
    "density": 6500.0,
    "youngs_modulus": 82.0,
    "melting_point": 1900.0,
    "thermal_conductivity": 10.5,
    "cost_per_kg": 120.0,
    "notes": "Tc=9.8K NbTi MRI magnets",
    "availability": "common",
    "name": "Niobium-Titanium",
    "poissons_ratio": 0.0,
    "yield_strength": 0.0,
    "corrosion_resistance": "moderate",
    "data_source": "literature",
    "confidence": 0.9
  },
  "Aluminum 6N": {
    "category": "quantum_material",
    "subcategory": "superconductor",
    "cas_number": "7429-90-5",
    "density": 2700.0,
    "youngs_modulus": 70.0,
    "melting_point": 933.0,
    "thermal_conductivity": 237.0,
    "cost_per_kg": 15.0,
    "notes": "Tc=1.2K Josephson junctions",
    "availability": "common",
    "name": "Aluminum 6N",
    "poissons_ratio": 0.0,
    "yield_strength": 0.0,
    "corrosion_resistance": "moderate",
    "data_source": "literature",
    "confidence": 0.9
  },
  "Sapphire substrate": {
    "category": "quantum_material",
    "subcategory": "substrate",
    "cas_number": "1344-28-1",
    "density": 3980.0,
    "youngs_modulus": 345.0,
    "melting_point": 2323.0,
    "thermal_conductivity": 46.0,
    "dielectric_constant": 9.4,
    "cost_per_kg": 150.0,
    "notes": "Low-loss qubit substrate",
    "availability": "common",
    "name": "Sapphire substrate",
    "poissons_ratio": 0.0,
    "yield_strength": 0.0,
    "corrosion_resistance": "moderate",
    "data_source": "literature",
    "confidence": 0.9
  },
  "Diamond CVD": {
    "category": "quantum_material",
    "subcategory": "substrate",
    "cas_number": "7782-40-3",
    "density": 3515.0,
    "youngs_modulus": 1050.0,
    "melting_point": 4300.0,
    "thermal_conductivity": 2200.0,
    "bandgap": 5.5,
    "cost_per_kg": 50000.0,
    "notes": "NV centers quantum sensing",
    "availability": "rare",
    "name": "Diamond CVD",
    "poissons_ratio": 0.0,
    "yield_strength": 0.0,
    "corrosion_resistance": "moderate",
    "data_source": "literature",
    "confidence": 0.9
  },
  "Silicon wafer": {
    "category": "semiconductor",
    "subcategory": "substrate",
    "cas_number": "7440-21-3",
    "density": 2329.0,
    "youngs_modulus": 170.0,
    "melting_point": 1687.0,
    "thermal_conductivity": 148.0,
    "bandgap": 1.12,
    "cost_per_kg": 35.0,
    "notes": "IC substrate",
    "availability": "common",
    "name": "Silicon wafer",
    "poissons_ratio": 0.0,
    "yield_strength": 0.0,
    "corrosion_resistance": "moderate",
    "data_source": "literature",
    "confidence": 0.9
  },
  "Gallium Arsenide": {
    "category": "semiconductor",
    "subcategory": "III-V",
    "cas_number": "1303-00-0",
    "density": 5320.0,
    "youngs_modulus": 85.0,
    "melting_point": 1511.0,
    "thermal_conductivity": 55.0,
    "bandgap": 1.42,
    "cost_per_kg": 300.0,
    "notes": "LEDs lasers",
    "availability": "common",
    "name": "Gallium Arsenide",
    "poissons_ratio": 0.0,
    "yield_strength": 0.0,
    "corrosion_resistance": "moderate",
    "data_source": "literature",
    "confidence": 0.9
  },
  "Gallium Nitride": {
    "category": "semiconductor",
    "subcategory": "III-V",
    "cas_number": "25617-97-4",
    "density": 6150.0,
    "youngs_modulus": 295.0,
    "melting_point": 2773.0,
    "thermal_conductivity": 130.0,
    "bandgap": 3.4,
    "cost_per_kg": 500.0,
    "notes": "Power electronics",
    "availability": "common",
    "name": "Gallium Nitride",
    "poissons_ratio": 0.0,
    "yield_strength": 0.0,
    "corrosion_resistance": "moderate",
    "data_source": "literature",
    "confidence": 0.9
  },
  "Silicon Carbide 4H": {
    "category": "semiconductor",
    "subcategory": "wide_bandgap",
    "cas_number": "409-21-2",
    "density": 3210.0,
    "youngs_modulus": 450.0,
    "melting_point": 3103.0,
    "thermal_conductivity": 370.0,
    "bandgap": 3.23,
    "cost_per_kg": 450.0,
    "notes": "EV inverters",
    "availability": "common",
    "name": "Silicon Carbide 4H",
    "poissons_ratio": 0.0,
    "yield_strength": 0.0,
    "corrosion_resistance": "moderate",
    "data_source": "literature",
    "confidence": 0.9
  },
  "Germanium": {
    "category": "semiconductor",
    "subcategory": "elemental",
    "cas_number": "7440-56-4",
    "density": 5323.0,
    "youngs_modulus": 103.0,
    "melting_point": 1211.0,
    "thermal_conductivity": 60.0,
    "bandgap": 0.66,
    "cost_per_kg": 1200.0,
    "notes": "IR optics",
    "availability": "uncommon",
    "name": "Germanium",
    "poissons_ratio": 0.0,
    "yield_strength": 0.0,
    "corrosion_resistance": "moderate",
    "data_source": "literature",
    "confidence": 0.9
  },
  "Water HPLC": {
    "category": "chemistry_reagent",
    "subcategory": "solvent",
    "cas_number": "7732-18-5",
    "density": 1000.0,
    "melting_point": 273.0,
    "boiling_point": 373.0,
    "thermal_conductivity": 0.6,
    "specific_heat": 4186.0,
    "dielectric_constant": 80.1,
    "refractive_index": 1.333,
    "cost_per_kg": 0.05,
    "notes": "Universal solvent",
    "availability": "common",
    "name": "Water HPLC",
    "poissons_ratio": 0.0,
    "yield_strength": 0.0,
    "corrosion_resistance": "moderate",
    "data_source": "literature",
    "confidence": 0.9
  },
  "Ethanol": {
    "category": "chemistry_reagent",
    "subcategory": "solvent",
    "cas_number": "64-17-5",
    "density": 789.0,
    "melting_point": 159.0,
    "boiling_point": 351.0,
    "dielectric_constant": 24.5,
    "refractive_index": 1.361,
    "cost_per_kg": 0.8,
    "notes": "Lab solvent",
    "availability": "common",
    "name": "Ethanol",
    "poissons_ratio": 0.0,
    "yield_strength": 0.0,
    "corrosion_resistance": "moderate",
    "data_source": "literature",
    "confidence": 0.9
  },
  "Methanol": {
    "category": "chemistry_reagent",
    "subcategory": "solvent",
    "cas_number": "67-56-1",
    "density": 792.0,
    "melting_point": 176.0,
    "boiling_point": 338.0,
    "dielectric_constant": 32.7,
    "refractive_index": 1.329,
    "cost_per_kg": 0.6,
    "notes": "HPLC mobile phase",
    "availability": "common",
    "name": "Methanol",
    "poissons_ratio": 0.0,
    "yield_strength": 0.0,
    "corrosion_resistance": "moderate",
    "data_source": "literature",
    "confidence": 0.9
  },
  "Acetone": {
    "category": "chemistry_reagent",
    "subcategory": "solvent",
    "cas_number": "67-64-1",
    "density": 784.0,
    "melting_point": 178.0,
    "boiling_point": 329.0,
    "dielectric_constant": 20.7,
    "refractive_index": 1.359,
    "cost_per_kg": 0.4,
    "notes": "Cleaning solvent",
    "availability": "common",
    "name": "Acetone",
    "poissons_ratio": 0.0,
    "yield_strength": 0.0,
    "corrosion_resistance": "moderate",
    "data_source": "literature",
    "confidence": 0.9
  },
  "Hydrochloric Acid 37%": {
    "category": "chemistry_reagent",
    "subcategory": "acid",
    "cas_number": "7647-01-0",
    "density": 1190.0,
    "boiling_point": 383.0,
    "cost_per_kg": 0.5,
    "notes": "Strong acid HCl",
    "availability": "common",
    "name": "Hydrochloric Acid 37%",
    "poissons_ratio": 0.0,
    "yield_strength": 0.0,
    "corrosion_resistance": "moderate",
    "data_source": "literature",
    "confidence": 0.9
  },
  "Sulfuric Acid 98%": {
    "category": "chemistry_reagent",
    "subcategory": "acid",
    "cas_number": "7664-93-9",
    "density": 1840.0,
    "boiling_point": 610.0,
    "cost_per_kg": 1.0,
    "notes": "H2SO4 catalyst",
    "availability": "common",
    "name": "Sulfuric Acid 98%",
    "poissons_ratio": 0.0,
    "yield_strength": 0.0,
    "corrosion_resistance": "moderate",
    "data_source": "literature",
    "confidence": 0.9
  },
  "Sodium Hydroxide": {
    "category": "chemistry_reagent",
    "subcategory": "base",
    "cas_number": "1310-73-2",
    "density": 2130.0,
    "melting_point": 596.0,
    "cost_per_kg": 0.3,
    "notes": "NaOH strong base",
    "availability": "common",
    "name": "Sodium Hydroxide",
    "poissons_ratio": 0.0,
    "yield_strength": 0.0,
    "corrosion_resistance": "moderate",
    "data_source": "literature",
    "confidence": 0.9
  },
  "Sodium Chloride": {
    "category": "chemistry_reagent",
    "subcategory": "salt",
    "cas_number": "7647-14-5",
    "density": 2165.0,
    "melting_point": 1074.0,
    "cost_per_kg": 0.05,
    "notes": "NaCl table salt",
    "availability": "common",
    "name": "Sodium Chloride",
    "poissons_ratio": 0.0,
    "yield_strength": 0.0,
    "corrosion_resistance": "moderate",
    "data_source": "literature",
    "confidence": 0.9
  },
  "Graphene CVD": {
    "category": "2D_material",
    "subcategory": "carbon",
    "cas_number": "7782-42-5",
    "density": 2260.0,
    "youngs_modulus": 1000.0,
    "tensile_strength": 130000.0,
    "thermal_conductivity": 5000.0,
    "electrical_resistivity": 1e-08,
    "cost_per_kg": 15000.0,
    "notes": "Single-layer ultra-high mobility",
    "availability": "uncommon",
    "name": "Graphene CVD",
    "poissons_ratio": 0.0,
    "yield_strength": 0.0,
    "corrosion_resistance": "moderate",
    "data_source": "literature",
    "confidence": 0.9
  },
  "Graphene oxide": {
    "category": "2D_material",
    "subcategory": "carbon",
    "cas_number": "7782-42-5",
    "density": 1800.0,
    "electrical_resistivity": 0.1,
    "cost_per_kg": 200.0,
    "notes": "Functionalized graphene",
    "availability": "common",
    "name": "Graphene oxide",
    "poissons_ratio": 0.0,
    "yield_strength": 0.0,
    "corrosion_resistance": "moderate",
    "data_source": "literature",
    "confidence": 0.9
  },
  "MoS2": {
    "category": "2D_material",
    "subcategory": "TMD",
    "cas_number": "1317-33-5",
    "density": 5060.0,
    "youngs_modulus": 270.0,
    "melting_point": 1458.0,
    "bandgap": 1.8,
    "cost_per_kg": 2800.0,
    "notes": "Direct bandgap semiconductor",
    "availability": "uncommon",
    "name": "MoS2",
    "poissons_ratio": 0.0,
    "yield_strength": 0.0,
    "corrosion_resistance": "moderate",
    "data_source": "literature",
    "confidence": 0.9
  },
  "h-BN": {
    "category": "2D_material",
    "subcategory": "insulator",
    "cas_number": "10043-11-5",
    "density": 2270.0,
    "youngs_modulus": 1000.0,
    "melting_point": 3273.0,
    "bandgap": 5.9,
    "cost_per_kg": 1500.0,
    "notes": "Atomically flat dielectric",
    "availability": "uncommon",
    "name": "h-BN",
    "poissons_ratio": 0.0,
    "yield_strength": 0.0,
    "corrosion_resistance": "moderate",
    "data_source": "literature",
    "confidence": 0.9
  },
  "Thermal Paste MX-4": {
    "category": "thermal_material",
    "subcategory": "paste",
    "density": 2450.0,
    "thermal_conductivity": 8.5,
    "cost_per_kg": 12.0,
    "notes": "CPU/GPU cooling",
    "availability": "common",
    "name": "Thermal Paste MX-4",
    "poissons_ratio": 0.0,
    "yield_strength": 0.0,
    "corrosion_resistance": "moderate",
    "data_source": "literature",
    "confidence": 0.9
  },
  "Indium Foil": {
    "category": "thermal_material",
    "subcategory": "metal_foil",
    "cas_number": "7440-74-6",
    "density": 7310.0,
    "melting_point": 430.0,
    "thermal_conductivity": 81.8,
    "cost_per_kg": 28.0,
    "notes": "Low-temp solder",
    "availability": "common",
    "name": "Indium Foil",
    "poissons_ratio": 0.0,
    "yield_strength": 0.0,
    "corrosion_resistance": "moderate",
    "data_source": "literature",
    "confidence": 0.9
  },
  "Graphite Sheet PGS": {
    "category": "thermal_material",
    "subcategory": "graphite",
    "cas_number": "7782-42-5",
    "density": 2260.0,
    "thermal_conductivity": 1500.0,
    "cost_per_kg": 180.0,
    "notes": "Anisotropic thermal conductor",
    "availability": "common",
    "name": "Graphite Sheet PGS",
    "poissons_ratio": 0.0,
    "yield_strength": 0.0,
    "corrosion_resistance": "moderate",
    "data_source": "literature",
    "confidence": 0.9
  },
  "Boron Nitride Paste": {
    "category": "thermal_material",
    "subcategory": "ceramic_paste",
    "cas_number": "10043-11-5",
    "density": 2100.0,
    "thermal_conductivity": 60.0,
    "cost_per_kg": 45.0,
    "notes": "Electrically insulating",
    "availability": "common",
    "name": "Boron Nitride Paste",
    "poissons_ratio": 0.0,
    "yield_strength": 0.0,
    "corrosion_resistance": "moderate",
    "data_source": "literature",
    "confidence": 0.9
  }
}