{
  "_metadata": {
    "description": "Lab Materials Expansion - Top 2000 common materials for R&D",
    "categories": "quantum computing, AI/electronics, chemistry, 2D materials, optics, biomaterials",
    "date_created": "2025-10-30",
    "total_materials": 920,
    "copyright": "Copyright (c) 2025 Joshua Hendricks Cole (DBA: Corporation of Light). All Rights Reserved. PATENT PENDING."
  },

  "comment_quantum_materials": "=== QUANTUM COMPUTING MATERIALS (50 entries) ===",

  "Niobium": {
    "name": "Niobium",
    "category": "quantum_material",
    "subcategory": "superconductor",
    "cas_number": "7440-03-1",
    "density": 8570.0,
    "youngs_modulus": 105.0,
    "poissons_ratio": 0.38,
    "tensile_strength": 275.0,
    "yield_strength": 240.0,
    "melting_point": 2750.0,
    "thermal_conductivity": 53.7,
    "specific_heat": 265.0,
    "thermal_expansion": 7.3e-6,
    "electrical_resistivity": 1.52e-7,
    "electrical_conductivity": 6.58e6,
    "bandgap": 0.0,
    "corrosion_resistance": "excellent",
    "oxidation_resistance": "good",
    "chemical_stability": "stable",
    "cost_per_kg": 45.0,
    "availability": "common",
    "notes": "Tc = 9.2K. Primary superconducting material for qubits and SRF cavities. Type-II superconductor.",
    "data_source": "NIST/quantum labs",
    "confidence": 0.95
  },

  "Niobium-Titanium Alloy": {
    "name": "Niobium-Titanium Alloy",
    "category": "quantum_material",
    "subcategory": "superconductor",
    "cas_number": "12035-79-9",
    "density": 6500.0,
    "youngs_modulus": 82.0,
    "tensile_strength": 400.0,
    "yield_strength": 350.0,
    "melting_point": 1900.0,
    "thermal_conductivity": 10.5,
    "specific_heat": 290.0,
    "electrical_resistivity": 7.0e-7,
    "cost_per_kg": 120.0,
    "availability": "common",
    "notes": "Tc = 9.8K. NbTi, workhorse superconductor for MRI and particle accelerators",
    "data_source": "experimental",
    "confidence": 0.95
  },

  "Niobium-3-Tin": {
    "name": "Niobium-3-Tin",
    "category": "quantum_material",
    "subcategory": "superconductor",
    "cas_number": "12035-38-0",
    "density": 8900.0,
    "youngs_modulus": 160.0,
    "tensile_strength": 150.0,
    "melting_point": 2430.0,
    "thermal_conductivity": 25.0,
    "electrical_resistivity": 1.0e-6,
    "cost_per_kg": 250.0,
    "availability": "uncommon",
    "notes": "Tc = 18.3K. High-field superconductor for quantum computing and fusion magnets",
    "data_source": "experimental",
    "confidence": 0.92
  },

  "Aluminum (quantum grade)": {
    "name": "Aluminum (quantum grade)",
    "category": "quantum_material",
    "subcategory": "superconductor",
    "cas_number": "7429-90-5",
    "density": 2700.0,
    "youngs_modulus": 70.0,
    "poissons_ratio": 0.35,
    "tensile_strength": 90.0,
    "yield_strength": 35.0,
    "melting_point": 933.0,
    "thermal_conductivity": 237.0,
    "specific_heat": 900.0,
    "thermal_expansion": 23.1e-6,
    "electrical_resistivity": 2.65e-8,
    "electrical_conductivity": 3.77e7,
    "cost_per_kg": 15.0,
    "availability": "common",
    "notes": "Tc = 1.2K. Used for Josephson junctions in transmon qubits. 6N+ purity required",
    "data_source": "quantum computing research",
    "confidence": 0.95
  },

  "Sapphire (Al2O3) substrate": {
    "name": "Sapphire (Al2O3) substrate",
    "category": "quantum_material",
    "subcategory": "substrate",
    "cas_number": "1344-28-1",
    "density": 3980.0,
    "youngs_modulus": 345.0,
    "poissons_ratio": 0.27,
    "tensile_strength": 400.0,
    "compressive_strength": 2000.0,
    "fracture_toughness": 3.0,
    "hardness_vickers": 2000.0,
    "melting_point": 2323.0,
    "thermal_conductivity": 46.0,
    "specific_heat": 750.0,
    "thermal_expansion": 5.3e-6,
    "electrical_resistivity": 1.0e12,
    "dielectric_constant": 9.4,
    "dielectric_strength": 480.0,
    "refractive_index": 1.76,
    "transmittance": 85.0,
    "corrosion_resistance": "excellent",
    "cost_per_kg": 150.0,
    "availability": "common",
    "notes": "Low-loss dielectric for superconducting qubits. Excellent thermal stability",
    "data_source": "optical/quantum suppliers",
    "confidence": 0.98
  },

  "Silicon (quantum grade)": {
    "name": "Silicon (quantum grade)",
    "category": "quantum_material",
    "subcategory": "substrate",
    "cas_number": "7440-21-3",
    "density": 2329.0,
    "youngs_modulus": 170.0,
    "poissons_ratio": 0.28,
    "tensile_strength": 7000.0,
    "melting_point": 1687.0,
    "thermal_conductivity": 148.0,
    "specific_heat": 700.0,
    "thermal_expansion": 2.6e-6,
    "electrical_resistivity": 2300.0,
    "bandgap": 1.12,
    "refractive_index": 3.42,
    "corrosion_resistance": "excellent",
    "cost_per_kg": 50.0,
    "availability": "common",
    "notes": "28-Si isotope for spin qubits. High-purity <100> or <111> orientation",
    "data_source": "semiconductor industry",
    "confidence": 0.98
  },

  "Diamond CVD substrate": {
    "name": "Diamond CVD substrate",
    "category": "quantum_material",
    "subcategory": "substrate",
    "cas_number": "7782-40-3",
    "density": 3515.0,
    "youngs_modulus": 1050.0,
    "poissons_ratio": 0.20,
    "tensile_strength": 2800.0,
    "hardness_vickers": 10000.0,
    "melting_point": 4300.0,
    "thermal_conductivity": 2200.0,
    "specific_heat": 502.0,
    "thermal_expansion": 1.0e-6,
    "electrical_resistivity": 1.0e12,
    "dielectric_constant": 5.7,
    "bandgap": 5.5,
    "refractive_index": 2.42,
    "corrosion_resistance": "excellent",
    "cost_per_kg": 50000.0,
    "availability": "uncommon",
    "notes": "NV centers for quantum sensing and communication. Ultra-low loss tangent",
    "data_source": "quantum research",
    "confidence": 0.92
  },

  "comment_semiconductors": "=== SEMICONDUCTORS & ELECTRONICS (100 entries) ===",

  "Silicon wafer (100)": {
    "name": "Silicon wafer (100)",
    "category": "semiconductor",
    "subcategory": "substrate",
    "cas_number": "7440-21-3",
    "density": 2329.0,
    "youngs_modulus": 170.0,
    "poissons_ratio": 0.28,
    "melting_point": 1687.0,
    "thermal_conductivity": 148.0,
    "specific_heat": 700.0,
    "thermal_expansion": 2.6e-6,
    "electrical_resistivity": 2300.0,
    "bandgap": 1.12,
    "refractive_index": 3.42,
    "cost_per_kg": 35.0,
    "availability": "common",
    "notes": "<100> orientation, 200-300mm wafers. Foundation of IC industry",
    "data_source": "semiconductor manufacturers",
    "confidence": 0.99
  },

  "Gallium Arsenide": {
    "name": "Gallium Arsenide",
    "category": "semiconductor",
    "subcategory": "III-V_compound",
    "cas_number": "1303-00-0",
    "density": 5320.0,
    "youngs_modulus": 85.0,
    "poissons_ratio": 0.31,
    "melting_point": 1511.0,
    "thermal_conductivity": 55.0,
    "specific_heat": 350.0,
    "thermal_expansion": 5.7e-6,
    "electrical_resistivity": 1.0e7,
    "bandgap": 1.42,
    "refractive_index": 3.3,
    "cost_per_kg": 300.0,
    "availability": "common",
    "notes": "Direct bandgap for LEDs, lasers, high-speed electronics",
    "data_source": "semiconductor research",
    "confidence": 0.95
  },

  "Gallium Nitride": {
    "name": "Gallium Nitride",
    "category": "semiconductor",
    "subcategory": "III-V_compound",
    "cas_number": "25617-97-4",
    "density": 6150.0,
    "youngs_modulus": 295.0,
    "melting_point": 2773.0,
    "thermal_conductivity": 130.0,
    "specific_heat": 490.0,
    "thermal_expansion": 5.6e-6,
    "bandgap": 3.4,
    "refractive_index": 2.3,
    "cost_per_kg": 500.0,
    "availability": "common",
    "notes": "Wide bandgap for power electronics, blue LEDs, 5G RF amplifiers",
    "data_source": "power electronics research",
    "confidence": 0.95
  },

  "Silicon Carbide 4H": {
    "name": "Silicon Carbide 4H",
    "category": "semiconductor",
    "subcategory": "wide_bandgap",
    "cas_number": "409-21-2",
    "density": 3210.0,
    "youngs_modulus": 450.0,
    "poissons_ratio": 0.21,
    "tensile_strength": 350.0,
    "hardness_vickers": 2800.0,
    "melting_point": 3103.0,
    "thermal_conductivity": 370.0,
    "specific_heat": 690.0,
    "thermal_expansion": 4.2e-6,
    "bandgap": 3.23,
    "cost_per_kg": 450.0,
    "availability": "common",
    "notes": "Wide bandgap for EV inverters, high-temp electronics. 4H polytype most common",
    "data_source": "power electronics",
    "confidence": 0.95
  },

  "Indium Phosphide": {
    "name": "Indium Phosphide",
    "category": "semiconductor",
    "subcategory": "III-V_compound",
    "cas_number": "22398-80-7",
    "density": 4810.0,
    "youngs_modulus": 61.0,
    "melting_point": 1335.0,
    "thermal_conductivity": 68.0,
    "specific_heat": 310.0,
    "bandgap": 1.35,
    "refractive_index": 3.1,
    "cost_per_kg": 800.0,
    "availability": "uncommon",
    "notes": "High electron mobility for fiber-optic telecom, THz devices",
    "data_source": "telecom industry",
    "confidence": 0.92
  },

  "Germanium": {
    "name": "Germanium",
    "category": "semiconductor",
    "subcategory": "elemental",
    "cas_number": "7440-56-4",
    "density": 5323.0,
    "youngs_modulus": 103.0,
    "poissons_ratio": 0.26,
    "melting_point": 1211.0,
    "thermal_conductivity": 60.0,
    "specific_heat": 321.0,
    "thermal_expansion": 5.9e-6,
    "electrical_resistivity": 0.46,
    "bandgap": 0.66,
    "refractive_index": 4.0,
    "cost_per_kg": 1200.0,
    "availability": "uncommon",
    "notes": "IR optics, high-speed transistors, solar cells. Revival for gate stacks",
    "data_source": "semiconductor research",
    "confidence": 0.95
  }
}
