{
  "_metadata": {
    "description": "Lab Materials Expansion - Top 2000 common materials for R&D",
    "categories": "quantum, semiconductors, 2D materials, chemistry reagents, optics, biomaterials",
    "date_created": "2025-10-30",
    "target_materials": 900,
    "copyright": "Copyright (c) 2025 Joshua Hendricks Cole (DBA: Corporation of Light). All Rights Reserved. PATENT PENDING."
  },
  "Niobium": {
    "name": "Niobium",
    "category": "quantum_material",
    "subcategory": "superconductor",
    "cas_number": "7440-03-1",
    "density": 8570,
    "youngs_modulus": 105,
    "poissons_ratio": 0.38,
    "tensile_strength": 275,
    "yield_strength": 240,
    "melting_point": 2750,
    "thermal_conductivity": 53.7,
    "specific_heat": 265,
    "thermal_expansion": 7.3e-06,
    "electrical_resistivity": 1.52e-07,
    "electrical_conductivity": 6580000.0,
    "bandgap": 0.0,
    "cost_per_kg": 45,
    "availability": "common",
    "notes": "Tc=9.2K. Primary qubit material",
    "data_source": "quantum_computing_research",
    "confidence": 0.95
  },
  "Niobium-Titanium": {
    "name": "Niobium-Titanium",
    "category": "quantum_material",
    "subcategory": "superconductor",
    "cas_number": "12035-79-9",
    "density": 6500,
    "youngs_modulus": 82,
    "poissons_ratio": 0.36,
    "tensile_strength": 400,
    "yield_strength": 350,
    "melting_point": 1900,
    "thermal_conductivity": 10.5,
    "specific_heat": 290,
    "thermal_expansion": 7e-06,
    "electrical_resistivity": 7e-07,
    "electrical_conductivity": 1400000.0,
    "bandgap": 0.0,
    "cost_per_kg": 120,
    "availability": "uncommon",
    "notes": "Tc=9.8K. NbTi for MRI/accelerators",
    "data_source": "quantum_computing_research",
    "confidence": 0.95
  },
  "Niobium-3-Tin": {
    "name": "Niobium-3-Tin",
    "category": "quantum_material",
    "subcategory": "superconductor",
    "cas_number": "12035-38-0",
    "density": 8900,
    "youngs_modulus": 160,
    "poissons_ratio": 0.3,
    "tensile_strength": 150,
    "yield_strength": 140,
    "melting_point": 2430,
    "thermal_conductivity": 25,
    "specific_heat": 280,
    "thermal_expansion": 6e-06,
    "electrical_resistivity": 1e-06,
    "electrical_conductivity": 1000000.0,
    "bandgap": 0.0,
    "cost_per_kg": 250,
    "availability": "uncommon",
    "notes": "Tc=18.3K. High-field superconductor",
    "data_source": "quantum_computing_research",
    "confidence": 0.95
  },
  "Aluminum (6N)": {
    "name": "Aluminum (6N)",
    "category": "quantum_material",
    "subcategory": "superconductor",
    "cas_number": "7429-90-5",
    "density": 2700,
    "youngs_modulus": 70,
    "poissons_ratio": 0.35,
    "tensile_strength": 90,
    "yield_strength": 35,
    "melting_point": 933,
    "thermal_conductivity": 237,
    "specific_heat": 900,
    "thermal_expansion": 2.31e-05,
    "electrical_resistivity": 2.65e-08,
    "electrical_conductivity": 37700000.0,
    "bandgap": 0.0,
    "cost_per_kg": 15,
    "availability": "common",
    "notes": "Tc=1.2K. Josephson junctions",
    "data_source": "quantum_computing_research",
    "confidence": 0.95
  },
  "Lead": {
    "name": "Lead",
    "category": "quantum_material",
    "subcategory": "superconductor",
    "cas_number": "7439-92-1",
    "density": 11340,
    "youngs_modulus": 16,
    "poissons_ratio": 0.44,
    "tensile_strength": 18,
    "yield_strength": 12,
    "melting_point": 601,
    "thermal_conductivity": 35.3,
    "specific_heat": 127,
    "thermal_expansion": 2.89e-05,
    "electrical_resistivity": 2.2e-07,
    "electrical_conductivity": 4800000.0,
    "bandgap": 0.0,
    "cost_per_kg": 2.2,
    "availability": "common",
    "notes": "Tc=7.2K. Classic superconductor",
    "data_source": "quantum_computing_research",
    "confidence": 0.95
  },
  "Tantalum": {
    "name": "Tantalum",
    "category": "quantum_material",
    "subcategory": "superconductor",
    "cas_number": "7440-25-7",
    "density": 16650,
    "youngs_modulus": 186,
    "poissons_ratio": 0.34,
    "tensile_strength": 760,
    "yield_strength": 690,
    "melting_point": 3290,
    "thermal_conductivity": 57.5,
    "specific_heat": 140,
    "thermal_expansion": 6.3e-06,
    "electrical_resistivity": 1.31e-07,
    "electrical_conductivity": 7600000.0,
    "bandgap": 0.0,
    "cost_per_kg": 175,
    "availability": "uncommon",
    "notes": "Tc=4.5K. SRF cavities",
    "data_source": "quantum_computing_research",
    "confidence": 0.95
  },
  "Sapphire (Al2O3)": {
    "name": "Sapphire (Al2O3)",
    "category": "quantum_material",
    "subcategory": "substrate",
    "cas_number": "1344-28-1",
    "density": 3980,
    "youngs_modulus": 345,
    "poissons_ratio": 0.27,
    "tensile_strength": 400,
    "yield_strength": 2000,
    "melting_point": 2323,
    "thermal_conductivity": 46,
    "specific_heat": 750,
    "thermal_expansion": 5.3e-06,
    "electrical_resistivity": 1000000000000.0,
    "electrical_conductivity": 1e-12,
    "bandgap": 5.5,
    "cost_per_kg": 150,
    "availability": "uncommon",
    "notes": "Low-loss dielectric",
    "data_source": "quantum_computing_research",
    "confidence": 0.95
  },
  "Silicon-28": {
    "name": "Silicon-28",
    "category": "quantum_material",
    "subcategory": "substrate",
    "cas_number": "7440-21-3",
    "density": 2329,
    "youngs_modulus": 170,
    "poissons_ratio": 0.28,
    "tensile_strength": 7000,
    "yield_strength": 600,
    "melting_point": 1687,
    "thermal_conductivity": 148,
    "specific_heat": 700,
    "thermal_expansion": 2.6e-06,
    "electrical_resistivity": 2300,
    "electrical_conductivity": 0.00043,
    "bandgap": 1.12,
    "cost_per_kg": 5000,
    "availability": "uncommon",
    "notes": "Isotope-pure for spin qubits",
    "data_source": "quantum_computing_research",
    "confidence": 0.95
  },
  "Diamond CVD": {
    "name": "Diamond CVD",
    "category": "quantum_material",
    "subcategory": "substrate",
    "cas_number": "7782-40-3",
    "density": 3515,
    "youngs_modulus": 1050,
    "poissons_ratio": 0.2,
    "tensile_strength": 2800,
    "yield_strength": 0,
    "melting_point": 4300,
    "thermal_conductivity": 2200,
    "specific_heat": 502,
    "thermal_expansion": 1e-06,
    "electrical_resistivity": 1000000000000.0,
    "electrical_conductivity": 1e-12,
    "bandgap": 5.5,
    "cost_per_kg": 50000,
    "availability": "uncommon",
    "notes": "NV centers, quantum sensing",
    "data_source": "quantum_computing_research",
    "confidence": 0.95
  }
}