{
  "_metadata": {
    "description": "Magnetic Materials Expansion - 30 materials for motors, sensors, transformers, data storage",
    "date": "2025-10-30",
    "version": "1.0",
    "categories": ["permanent_magnet", "soft_magnetic", "ferrite", "amorphous_magnetic"]
  },

  "NdFeB_N52": {
    "name": "Neodymium-Iron-Boron N52",
    "category": "magnetic_material",
    "subcategory": "permanent_magnet",
    "cas_number": "12059-70-4",
    "density": 7500.0,
    "melting_point": 1315.0,
    "curie_temperature": 310.0,
    "max_energy_product_MGOe": 52.0,
    "remanence_tesla": 1.48,
    "coercivity_kA_m": 915.0,
    "notes": "Strongest permanent magnet, motors, generators, MRI, max operating temp 80째C",
    "cost_per_kg": 180.0,
    "confidence": 0.97
  },

  "NdFeB_N42": {
    "name": "Neodymium-Iron-Boron N42",
    "category": "magnetic_material",
    "subcategory": "permanent_magnet",
    "cas_number": "12059-70-4",
    "density": 7400.0,
    "melting_point": 1315.0,
    "curie_temperature": 310.0,
    "max_energy_product_MGOe": 42.0,
    "remanence_tesla": 1.32,
    "coercivity_kA_m": 915.0,
    "notes": "Most common grade, electric vehicles, wind turbines, consumer electronics",
    "cost_per_kg": 85.0,
    "confidence": 0.98
  },

  "NdFeB_N35SH": {
    "name": "Neodymium-Iron-Boron N35SH",
    "category": "magnetic_material",
    "subcategory": "permanent_magnet",
    "density": 7400.0,
    "melting_point": 1315.0,
    "curie_temperature": 310.0,
    "max_energy_product_MGOe": 35.0,
    "remanence_tesla": 1.21,
    "coercivity_kA_m": 1353.0,
    "notes": "High temperature grade (max 150째C), EV traction motors, high-performance applications",
    "cost_per_kg": 120.0,
    "confidence": 0.96
  },

  "SmCo_Sm2Co17": {
    "name": "Samarium-Cobalt Sm2Co17",
    "category": "magnetic_material",
    "subcategory": "permanent_magnet",
    "cas_number": "12017-68-4",
    "density": 8400.0,
    "melting_point": 1190.0,
    "curie_temperature": 825.0,
    "max_energy_product_MGOe": 32.0,
    "remanence_tesla": 1.15,
    "coercivity_kA_m": 800.0,
    "notes": "High temp stability (max 350째C), aerospace, military, corrosion resistant",
    "cost_per_kg": 850.0,
    "confidence": 0.95
  },

  "SmCo_SmCo5": {
    "name": "Samarium-Cobalt SmCo5",
    "category": "magnetic_material",
    "subcategory": "permanent_magnet",
    "cas_number": "12017-67-3",
    "density": 8300.0,
    "melting_point": 1267.0,
    "curie_temperature": 720.0,
    "max_energy_product_MGOe": 20.0,
    "remanence_tesla": 0.95,
    "coercivity_kA_m": 720.0,
    "notes": "First-generation SmCo, high coercivity, precision instruments",
    "cost_per_kg": 920.0,
    "confidence": 0.94
  },

  "Alnico_5": {
    "name": "Alnico 5",
    "category": "magnetic_material",
    "subcategory": "permanent_magnet",
    "cas_number": "12004-35-6",
    "density": 7300.0,
    "melting_point": 1500.0,
    "curie_temperature": 860.0,
    "max_energy_product_MGOe": 5.5,
    "remanence_tesla": 1.28,
    "coercivity_kA_m": 48.0,
    "notes": "AlNiCo, guitar pickups, sensors, high temp stability (max 550째C)",
    "cost_per_kg": 180.0,
    "confidence": 0.96
  },

  "Alnico_8": {
    "name": "Alnico 8",
    "category": "magnetic_material",
    "subcategory": "permanent_magnet",
    "density": 7300.0,
    "melting_point": 1500.0,
    "curie_temperature": 860.0,
    "max_energy_product_MGOe": 5.3,
    "remanence_tesla": 0.91,
    "coercivity_kA_m": 143.0,
    "notes": "Highest coercivity Alnico, holding magnets, compact designs",
    "cost_per_kg": 200.0,
    "confidence": 0.95
  },

  "Silicon_Steel_M19": {
    "name": "Silicon Steel M-19",
    "category": "magnetic_material",
    "subcategory": "soft_magnetic",
    "cas_number": "12063-56-8",
    "density": 7650.0,
    "melting_point": 1510.0,
    "curie_temperature": 750.0,
    "saturation_magnetization_tesla": 2.03,
    "coercivity_kA_m": 8.0,
    "core_loss_W_kg": 2.7,
    "notes": "3% Si, laminated transformer cores, electric motors, ASTM A976",
    "cost_per_kg": 12.0,
    "confidence": 0.98
  },

  "Silicon_Steel_M36": {
    "name": "Silicon Steel M-36",
    "category": "magnetic_material",
    "subcategory": "soft_magnetic",
    "density": 7650.0,
    "melting_point": 1510.0,
    "curie_temperature": 750.0,
    "saturation_magnetization_tesla": 2.01,
    "coercivity_kA_m": 10.0,
    "core_loss_W_kg": 3.6,
    "notes": "Lower grade, higher core loss, small motors, solenoids",
    "cost_per_kg": 8.5,
    "confidence": 0.97
  },

  "Grain_Oriented_Silicon_Steel": {
    "name": "Grain-Oriented Silicon Steel",
    "category": "magnetic_material",
    "subcategory": "soft_magnetic",
    "density": 7650.0,
    "melting_point": 1510.0,
    "curie_temperature": 750.0,
    "saturation_magnetization_tesla": 2.05,
    "coercivity_kA_m": 4.0,
    "core_loss_W_kg": 0.9,
    "notes": "Directional grain structure, power transformers, ultra-low core loss",
    "cost_per_kg": 25.0,
    "confidence": 0.97
  },

  "Permalloy_80": {
    "name": "Permalloy 80% Ni",
    "category": "magnetic_material",
    "subcategory": "soft_magnetic",
    "cas_number": "12063-79-5",
    "density": 8700.0,
    "melting_point": 1460.0,
    "curie_temperature": 460.0,
    "saturation_magnetization_tesla": 1.05,
    "coercivity_kA_m": 0.4,
    "permeability_max": 100000.0,
    "notes": "80% Ni, 20% Fe, magnetic shielding, transformers, extremely high permeability",
    "cost_per_kg": 280.0,
    "confidence": 0.96
  },

  "Mu_Metal": {
    "name": "Mu-Metal",
    "category": "magnetic_material",
    "subcategory": "soft_magnetic",
    "cas_number": "12063-79-5",
    "density": 8750.0,
    "melting_point": 1450.0,
    "curie_temperature": 450.0,
    "saturation_magnetization_tesla": 0.65,
    "coercivity_kA_m": 0.16,
    "permeability_max": 350000.0,
    "notes": "77% Ni, 16% Fe, 5% Cu, 2% Cr/Mo, best magnetic shielding, CRT tubes, MRI rooms",
    "cost_per_kg": 450.0,
    "confidence": 0.95
  },

  "Supermalloy": {
    "name": "Supermalloy",
    "category": "magnetic_material",
    "subcategory": "soft_magnetic",
    "density": 8600.0,
    "melting_point": 1450.0,
    "curie_temperature": 400.0,
    "saturation_magnetization_tesla": 0.79,
    "coercivity_kA_m": 0.16,
    "permeability_max": 1000000.0,
    "notes": "79% Ni, 16% Fe, 5% Mo, highest permeability, precision instruments",
    "cost_per_kg": 650.0,
    "confidence": 0.93
  },

  "Hiperco_50": {
    "name": "Hiperco 50",
    "category": "magnetic_material",
    "subcategory": "soft_magnetic",
    "density": 8120.0,
    "melting_point": 1490.0,
    "curie_temperature": 940.0,
    "saturation_magnetization_tesla": 2.40,
    "coercivity_kA_m": 16.0,
    "notes": "49% Co, 49% Fe, 2% V, highest saturation, aerospace actuators, high-frequency",
    "cost_per_kg": 850.0,
    "confidence": 0.94
  },

  "Iron_Powder_Carbonyl": {
    "name": "Carbonyl Iron Powder",
    "category": "magnetic_material",
    "subcategory": "soft_magnetic",
    "cas_number": "7439-89-6",
    "density": 7860.0,
    "melting_point": 1538.0,
    "saturation_magnetization_tesla": 2.15,
    "notes": "High purity Fe, cores for high-frequency inductors, EM shielding, MRI contrast",
    "cost_per_kg": 85.0,
    "confidence": 0.96
  },

  "Sendust": {
    "name": "Sendust",
    "category": "magnetic_material",
    "subcategory": "soft_magnetic",
    "density": 7300.0,
    "melting_point": 1540.0,
    "curie_temperature": 500.0,
    "saturation_magnetization_tesla": 1.0,
    "coercivity_kA_m": 4.8,
    "notes": "85% Fe, 9% Si, 6% Al, audio recording heads, high-frequency cores",
    "cost_per_kg": 180.0,
    "confidence": 0.93
  },

  "Ferrite_MnZn": {
    "name": "Manganese-Zinc Ferrite",
    "category": "magnetic_material",
    "subcategory": "ferrite",
    "cas_number": "12063-10-4",
    "density": 4800.0,
    "curie_temperature": 220.0,
    "saturation_magnetization_tesla": 0.50,
    "permeability_initial": 2500.0,
    "resistivity_ohm_m": 0.1,
    "notes": "MnZnFe2O4, high permeability, transformer cores, low-frequency (<1 MHz)",
    "cost_per_kg": 45.0,
    "confidence": 0.96
  },

  "Ferrite_NiZn": {
    "name": "Nickel-Zinc Ferrite",
    "category": "magnetic_material",
    "subcategory": "ferrite",
    "cas_number": "12168-54-6",
    "density": 5000.0,
    "curie_temperature": 350.0,
    "saturation_magnetization_tesla": 0.36,
    "permeability_initial": 800.0,
    "resistivity_ohm_m": 100.0,
    "notes": "NiZnFe2O4, high resistivity, RF cores, EMI suppression (1-500 MHz)",
    "cost_per_kg": 55.0,
    "confidence": 0.95
  },

  "Ferrite_BaFe12O19": {
    "name": "Barium Ferrite",
    "category": "magnetic_material",
    "subcategory": "ferrite",
    "cas_number": "11138-11-7",
    "density": 5280.0,
    "melting_point": 1390.0,
    "curie_temperature": 450.0,
    "max_energy_product_MGOe": 3.5,
    "remanence_tesla": 0.38,
    "coercivity_kA_m": 240.0,
    "notes": "Hard ferrite, permanent magnets, loudspeakers, motors, low cost",
    "cost_per_kg": 12.0,
    "confidence": 0.97
  },

  "Ferrite_SrFe12O19": {
    "name": "Strontium Ferrite",
    "category": "magnetic_material",
    "subcategory": "ferrite",
    "cas_number": "12023-91-5",
    "density": 5100.0,
    "melting_point": 1350.0,
    "curie_temperature": 460.0,
    "max_energy_product_MGOe": 3.6,
    "remanence_tesla": 0.40,
    "coercivity_kA_m": 280.0,
    "notes": "Hard ferrite, refrigerator magnets, DC motors, slightly stronger than BaFe",
    "cost_per_kg": 10.0,
    "confidence": 0.97
  },

  "Amorphous_2605SA1": {
    "name": "Metglas 2605SA1",
    "category": "magnetic_material",
    "subcategory": "amorphous_magnetic",
    "density": 7180.0,
    "curie_temperature": 395.0,
    "saturation_magnetization_tesla": 1.41,
    "coercivity_kA_m": 0.8,
    "core_loss_W_kg": 0.15,
    "notes": "Fe-B-Si amorphous ribbon, ultra-low core loss, distribution transformers",
    "cost_per_kg": 180.0,
    "confidence": 0.94
  },

  "Amorphous_2605SC": {
    "name": "Metglas 2605SC",
    "category": "magnetic_material",
    "subcategory": "amorphous_magnetic",
    "density": 7290.0,
    "curie_temperature": 415.0,
    "saturation_magnetization_tesla": 1.56,
    "coercivity_kA_m": 0.64,
    "core_loss_W_kg": 0.12,
    "notes": "Fe-based, lowest core loss, power transformers, 70% energy saving vs Si steel",
    "cost_per_kg": 220.0,
    "confidence": 0.93
  },

  "Nanocrystalline_Finemet": {
    "name": "Finemet FT-3M",
    "category": "magnetic_material",
    "subcategory": "amorphous_magnetic",
    "density": 7300.0,
    "curie_temperature": 570.0,
    "saturation_magnetization_tesla": 1.24,
    "coercivity_kA_m": 0.48,
    "permeability_initial": 50000.0,
    "notes": "Fe-Si-B-Nb-Cu nanocrystalline, high-frequency transformers, EMI filters",
    "cost_per_kg": 350.0,
    "confidence": 0.92
  },

  "Nanocrystalline_Nanoperm": {
    "name": "Nanoperm",
    "category": "magnetic_material",
    "subcategory": "amorphous_magnetic",
    "density": 7200.0,
    "curie_temperature": 600.0,
    "saturation_magnetization_tesla": 1.52,
    "coercivity_kA_m": 0.8,
    "permeability_initial": 80000.0,
    "notes": "Fe-Zr-B nanocrystalline, current sensors, saturation resistant",
    "cost_per_kg": 380.0,
    "confidence": 0.91
  },

  "Vitrovac_6025": {
    "name": "Vitrovac 6025",
    "category": "magnetic_material",
    "subcategory": "amorphous_magnetic",
    "density": 7900.0,
    "curie_temperature": 355.0,
    "saturation_magnetization_tesla": 0.55,
    "coercivity_kA_m": 0.24,
    "permeability_max": 300000.0,
    "notes": "Co-based amorphous, magnetic sensors, anti-theft tags, high permeability",
    "cost_per_kg": 650.0,
    "confidence": 0.90
  },

  "FeCo_Alloy_49": {
    "name": "Iron-Cobalt 49% Co",
    "category": "magnetic_material",
    "subcategory": "soft_magnetic",
    "density": 8120.0,
    "melting_point": 1490.0,
    "curie_temperature": 940.0,
    "saturation_magnetization_tesla": 2.35,
    "coercivity_kA_m": 16.0,
    "notes": "Equal Co:Fe, highest saturation of all alloys, pole pieces, motor rotors",
    "cost_per_kg": 780.0,
    "confidence": 0.95
  },

  "Iron_Nickel_36": {
    "name": "Iron-Nickel 36% Ni (Invar)",
    "category": "magnetic_material",
    "subcategory": "soft_magnetic",
    "cas_number": "12168-85-3",
    "density": 8050.0,
    "melting_point": 1450.0,
    "curie_temperature": 280.0,
    "saturation_magnetization_tesla": 1.3,
    "thermal_expansion_coeff": 0.0000012,
    "notes": "Ultra-low thermal expansion, precision instruments, shadow masks",
    "cost_per_kg": 220.0,
    "confidence": 0.96
  },

  "Pure_Iron_Armco": {
    "name": "Armco Pure Iron",
    "category": "magnetic_material",
    "subcategory": "soft_magnetic",
    "cas_number": "7439-89-6",
    "density": 7870.0,
    "melting_point": 1538.0,
    "curie_temperature": 770.0,
    "saturation_magnetization_tesla": 2.16,
    "coercivity_kA_m": 8.0,
    "permeability_max": 5000.0,
    "notes": "99.85% Fe, electromagnet cores, relays, highest saturation for pure Fe",
    "cost_per_kg": 45.0,
    "confidence": 0.98
  },

  "Magnetic_Stainless_430": {
    "name": "Magnetic Stainless Steel 430",
    "category": "magnetic_material",
    "subcategory": "soft_magnetic",
    "cas_number": "12597-69-2",
    "density": 7700.0,
    "melting_point": 1510.0,
    "curie_temperature": 760.0,
    "saturation_magnetization_tesla": 1.5,
    "notes": "Ferritic stainless, corrosion resistant, kitchen appliances, automotive trim",
    "cost_per_kg": 28.0,
    "confidence": 0.97
  },

  "SmFe_Alloy": {
    "name": "Samarium-Iron Alloy",
    "category": "magnetic_material",
    "subcategory": "permanent_magnet",
    "density": 7800.0,
    "curie_temperature": 670.0,
    "max_energy_product_MGOe": 28.0,
    "remanence_tesla": 1.10,
    "coercivity_kA_m": 800.0,
    "notes": "Sm-Fe-N intermetallic, research stage, cheaper than SmCo, lower performance",
    "cost_per_kg": 420.0,
    "confidence": 0.87
  }
}
