{
  "SS 304": {
    "name": "SS 304",
    "category": "metal",
    "subcategory": "austenitic_stainless_steel",
    "cas_number": "12597-68-1",
    "density": 8000,
    "youngs_modulus": 193,
    "shear_modulus": 74,
    "bulk_modulus": 160,
    "poissons_ratio": 0.29,
    "tensile_strength": 505,
    "yield_strength": 290,
    "compressive_strength": 290,
    "fracture_toughness": 140,
    "hardness_vickers": 210,
    "hardness_rockwell": "HRB 90",
    "elongation_at_break": 55,
    "fatigue_limit": 200,
    "melting_point": 1723,
    "boiling_point": 0.0,
    "glass_transition_temp": 0.0,
    "thermal_conductivity": 16.2,
    "specific_heat": 500,
    "thermal_expansion": 1.73e-05,
    "thermal_diffusivity": 4.2e-06,
    "max_service_temp": 1173,
    "min_service_temp": 4,
    "electrical_resistivity": 7.2e-07,
    "electrical_conductivity": 1388888.9,
    "dielectric_constant": 1.0,
    "dielectric_strength": 0.0,
    "bandgap": 0.0,
    "refractive_index": 1.0,
    "absorption_coefficient": 0.0,
    "reflectance": 55.0,
    "transmittance": 0.0,
    "emissivity": 0.4,
    "corrosion_resistance": "excellent",
    "oxidation_resistance": "good",
    "chemical_stability": "stable",
    "ph_stability_range": [
      1,
      14
    ],
    "water_absorption": 0.0,
    "cost_per_kg": 4.2,
    "availability": "common",
    "notes": "Austenitic stainless steel with high toughness and corrosion resistance.",
    "data_source": "ASM Stainless Steels Handbook",
    "confidence": 0.93
  },
  "Inconel 718": {
    "name": "Inconel 718",
    "category": "metal",
    "subcategory": "nickel_superalloy",
    "cas_number": "7440-02-0",
    "density": 8190,
    "youngs_modulus": 200,
    "shear_modulus": 77,
    "bulk_modulus": 150,
    "poissons_ratio": 0.29,
    "tensile_strength": 1240,
    "yield_strength": 1035,
    "compressive_strength": 1240,
    "fracture_toughness": 120,
    "hardness_vickers": 420,
    "hardness_rockwell": "HRC 44",
    "elongation_at_break": 12,
    "fatigue_limit": 440,
    "melting_point": 1560,
    "boiling_point": 0.0,
    "glass_transition_temp": 0.0,
    "thermal_conductivity": 11.4,
    "specific_heat": 435,
    "thermal_expansion": 1.3e-05,
    "thermal_diffusivity": 2.5e-06,
    "max_service_temp": 1200,
    "min_service_temp": 77,
    "electrical_resistivity": 1.25e-06,
    "electrical_conductivity": 800000.0,
    "dielectric_constant": 1.0,
    "dielectric_strength": 0.0,
    "bandgap": 0.0,
    "refractive_index": 1.0,
    "absorption_coefficient": 0.0,
    "reflectance": 65.0,
    "transmittance": 0.0,
    "emissivity": 0.35,
    "corrosion_resistance": "excellent",
    "oxidation_resistance": "excellent",
    "chemical_stability": "stable",
    "ph_stability_range": [
      3,
      11
    ],
    "water_absorption": 0.0,
    "cost_per_kg": 45.0,
    "availability": "common",
    "notes": "Nickel-based superalloy for turbines, cryogenic tanks, and space hardware.",
    "data_source": "NASA Materials Almanac",
    "confidence": 0.92
  },
  "Silicon Carbide (Sintered)": {
    "name": "Silicon Carbide (Sintered)",
    "category": "ceramic",
    "subcategory": "carbide",
    "cas_number": "409-21-2",
    "density": 3210,
    "youngs_modulus": 410,
    "shear_modulus": 190,
    "bulk_modulus": 220,
    "poissons_ratio": 0.17,
    "tensile_strength": 240,
    "yield_strength": 0.0,
    "compressive_strength": 3900,
    "fracture_toughness": 4.6,
    "hardness_vickers": 2500,
    "hardness_rockwell": "HRA 94",
    "elongation_at_break": 0.2,
    "fatigue_limit": 0.0,
    "melting_point": 3100,
    "boiling_point": 0.0,
    "glass_transition_temp": 0.0,
    "thermal_conductivity": 120,
    "specific_heat": 750,
    "thermal_expansion": 4.0e-06,
    "thermal_diffusivity": 8.2e-06,
    "max_service_temp": 1973,
    "min_service_temp": 4,
    "electrical_resistivity": 100000.0,
    "electrical_conductivity": 0.0,
    "dielectric_constant": 9.7,
    "dielectric_strength": 25.0,
    "bandgap": 2.9,
    "refractive_index": 2.65,
    "absorption_coefficient": 0.0,
    "reflectance": 20.0,
    "transmittance": 0.0,
    "emissivity": 0.85,
    "corrosion_resistance": "excellent",
    "oxidation_resistance": "good",
    "chemical_stability": "stable",
    "ph_stability_range": [
      1,
      14
    ],
    "water_absorption": 0.0,
    "cost_per_kg": 18.0,
    "availability": "common",
    "notes": "Structural ceramic for high-temperature wear parts and semiconductor processing.",
    "data_source": "NIST Advanced Ceramics Database",
    "confidence": 0.88
  },
  "Kapton HN Polyimide": {
    "name": "Kapton HN Polyimide",
    "category": "polymer",
    "subcategory": "polyimide",
    "cas_number": null,
    "density": 1420,
    "youngs_modulus": 2.5,
    "shear_modulus": 0.95,
    "bulk_modulus": 3.2,
    "poissons_ratio": 0.34,
    "tensile_strength": 231,
    "yield_strength": 120,
    "compressive_strength": 200,
    "fracture_toughness": 2.1,
    "hardness_vickers": 25,
    "hardness_rockwell": "M 95",
    "elongation_at_break": 72,
    "fatigue_limit": 45,
    "melting_point": 0.0,
    "boiling_point": 0.0,
    "glass_transition_temp": 673,
    "thermal_conductivity": 0.12,
    "specific_heat": 1090,
    "thermal_expansion": 2.0e-05,
    "thermal_diffusivity": 1.4e-07,
    "max_service_temp": 673,
    "min_service_temp": 4,
    "electrical_resistivity": 1.0e14,
    "electrical_conductivity": 1.0e-14,
    "dielectric_constant": 3.4,
    "dielectric_strength": 2.4,
    "bandgap": 3.0,
    "refractive_index": 1.7,
    "absorption_coefficient": 0.0,
    "reflectance": 4.0,
    "transmittance": 90.0,
    "emissivity": 0.75,
    "corrosion_resistance": "excellent",
    "oxidation_resistance": "good",
    "chemical_stability": "stable",
    "ph_stability_range": [
      2,
      13
    ],
    "water_absorption": 1.5,
    "cost_per_kg": 120.0,
    "availability": "common",
    "notes": "Flexible high-temperature film for space-rated insulation and electronics.",
    "data_source": "DuPont Kapton HN Datasheet",
    "confidence": 0.9
  },
  "Loctite EA 9396": {
    "name": "Loctite EA 9396",
    "category": "polymer",
    "subcategory": "epoxy_adhesive",
    "cas_number": null,
    "density": 1320,
    "youngs_modulus": 2.7,
    "shear_modulus": 1.0,
    "bulk_modulus": 3.3,
    "poissons_ratio": 0.36,
    "tensile_strength": 72,
    "yield_strength": 60,
    "compressive_strength": 120,
    "fracture_toughness": 1.1,
    "hardness_vickers": 35,
    "hardness_rockwell": "M 88",
    "elongation_at_break": 6.0,
    "fatigue_limit": 25,
    "melting_point": 0.0,
    "boiling_point": 0.0,
    "glass_transition_temp": 423,
    "thermal_conductivity": 0.32,
    "specific_heat": 1100,
    "thermal_expansion": 5.8e-05,
    "thermal_diffusivity": 1.6e-07,
    "max_service_temp": 394,
    "min_service_temp": 233,
    "electrical_resistivity": 3.0e13,
    "electrical_conductivity": 3.3e-14,
    "dielectric_constant": 4.1,
    "dielectric_strength": 16.0,
    "bandgap": 3.5,
    "refractive_index": 1.6,
    "absorption_coefficient": 0.0,
    "reflectance": 5.0,
    "transmittance": 0.0,
    "emissivity": 0.85,
    "corrosion_resistance": "good",
    "oxidation_resistance": "moderate",
    "chemical_stability": "stable",
    "ph_stability_range": [
      4,
      11
    ],
    "water_absorption": 1.2,
    "cost_per_kg": 95.0,
    "availability": "common",
    "notes": "Aerospace-grade structural epoxy adhesive with high peel strength.",
    "data_source": "Henkel Aerospace Technical Data Sheet",
    "confidence": 0.87
  },
  "Carbon-Carbon Composite (2D)": {
    "name": "Carbon-Carbon Composite (2D)",
    "category": "composite",
    "subcategory": "carbon_carbon",
    "cas_number": null,
    "density": 1600,
    "youngs_modulus": 70,
    "shear_modulus": 6.0,
    "bulk_modulus": 12.0,
    "poissons_ratio": 0.2,
    "tensile_strength": 550,
    "yield_strength": 0.0,
    "compressive_strength": 700,
    "fracture_toughness": 18.0,
    "hardness_vickers": 150,
    "hardness_rockwell": "HRB 75",
    "elongation_at_break": 0.5,
    "fatigue_limit": 180,
    "melting_point": 0.0,
    "boiling_point": 0.0,
    "glass_transition_temp": 0.0,
    "thermal_conductivity": 25,
    "specific_heat": 710,
    "thermal_expansion": 2.0e-06,
    "thermal_diffusivity": 8.0e-06,
    "max_service_temp": 3300,
    "min_service_temp": 4,
    "electrical_resistivity": 1.6e-05,
    "electrical_conductivity": 62000.0,
    "dielectric_constant": 10.0,
    "dielectric_strength": 0.0,
    "bandgap": 0.0,
    "refractive_index": 1.8,
    "absorption_coefficient": 0.0,
    "reflectance": 15.0,
    "transmittance": 0.0,
    "emissivity": 0.9,
    "corrosion_resistance": "moderate",
    "oxidation_resistance": "poor",
    "chemical_stability": "stable",
    "ph_stability_range": [
      4,
      10
    ],
    "water_absorption": 0.0,
    "cost_per_kg": 180.0,
    "availability": "uncommon",
    "notes": "High-temperature carbon-carbon laminate used for brake disks and leading edges.",
    "data_source": "USAF Materials Handbook",
    "confidence": 0.85
  },
  "NMC811 Cathode Powder": {
    "name": "NMC811 Cathode Powder",
    "category": "composite",
    "subcategory": "battery_cathode",
    "cas_number": null,
    "density": 4800,
    "youngs_modulus": 15,
    "shear_modulus": 6.0,
    "bulk_modulus": 20.0,
    "poissons_ratio": 0.28,
    "tensile_strength": 60,
    "yield_strength": 35,
    "compressive_strength": 120,
    "fracture_toughness": 0.8,
    "hardness_vickers": 120,
    "hardness_rockwell": null,
    "elongation_at_break": 1.0,
    "fatigue_limit": 0.0,
    "melting_point": 0.0,
    "boiling_point": 0.0,
    "glass_transition_temp": 0.0,
    "thermal_conductivity": 2.2,
    "specific_heat": 940,
    "thermal_expansion": 1.0e-05,
    "thermal_diffusivity": 6.0e-07,
    "max_service_temp": 363,
    "min_service_temp": 223,
    "electrical_resistivity": 6.0e-05,
    "electrical_conductivity": 17000.0,
    "dielectric_constant": 5.5,
    "dielectric_strength": 0.0,
    "bandgap": 1.5,
    "refractive_index": 1.0,
    "absorption_coefficient": 0.0,
    "reflectance": 0.0,
    "transmittance": 0.0,
    "emissivity": 0.6,
    "corrosion_resistance": "poor",
    "oxidation_resistance": "moderate",
    "chemical_stability": "reactive",
    "ph_stability_range": [
      5,
      9
    ],
    "water_absorption": 0.2,
    "cost_per_kg": 35.0,
    "availability": "common",
    "notes": "Nickel-rich lithium-ion cathode material (LiNi0.8Co0.1Mn0.1O2).",
    "data_source": "DOE Battery Materials Handbook",
    "confidence": 0.8
  },
  "Airloy X103 Strong Aerogel": {
    "name": "Airloy X103 Strong Aerogel",
    "category": "nanomaterial",
    "subcategory": "aerogel",
    "cas_number": null,
    "density": 144,
    "youngs_modulus": 0.018,
    "shear_modulus": 0.007,
    "bulk_modulus": 0.0,
    "poissons_ratio": 0.2,
    "tensile_strength": 0.31,
    "yield_strength": 0.25,
    "compressive_strength": 1.65,
    "fracture_toughness": 0.05,
    "hardness_vickers": 0.5,
    "hardness_rockwell": null,
    "elongation_at_break": 2.0,
    "fatigue_limit": 0.0,
    "melting_point": 573,
    "boiling_point": 0.0,
    "glass_transition_temp": 473,
    "thermal_conductivity": 0.014,
    "specific_heat": 1000,
    "thermal_expansion": 3e-06,
    "thermal_diffusivity": 1e-07,
    "max_service_temp": 473,
    "min_service_temp": 73,
    "electrical_resistivity": 1000000000000000.0,
    "electrical_conductivity": 0.0,
    "dielectric_constant": 1.05,
    "dielectric_strength": 15.0,
    "bandgap": 0.0,
    "refractive_index": 1.007,
    "absorption_coefficient": 0.0,
    "reflectance": 0.0,
    "transmittance": 90.0,
    "emissivity": 0.05,
    "corrosion_resistance": "excellent",
    "oxidation_resistance": "good",
    "chemical_stability": "stable",
    "ph_stability_range": [
      0,
      14
    ],
    "water_absorption": 5.0,
    "cost_per_kg": 2500.0,
    "availability": "uncommon",
    "notes": "Strongest aerogel commercially available; retains strength at -200°C in 30 mph wind.",
    "data_source": "Aerogel Technologies LLC specifications",
    "confidence": 0.98
  },
  "CoCrFeMnNi High Entropy Alloy": {
    "name": "CoCrFeMnNi High Entropy Alloy",
    "category": "metal",
    "subcategory": "high_entropy_alloy",
    "cas_number": null,
    "density": 7980,
    "youngs_modulus": 200,
    "shear_modulus": 76,
    "bulk_modulus": 160,
    "poissons_ratio": 0.31,
    "tensile_strength": 985,
    "yield_strength": 420,
    "compressive_strength": 1100,
    "fracture_toughness": 150,
    "hardness_vickers": 310,
    "hardness_rockwell": "HRC 32",
    "elongation_at_break": 60,
    "fatigue_limit": 320,
    "melting_point": 1623,
    "boiling_point": 0.0,
    "glass_transition_temp": 0.0,
    "thermal_conductivity": 12.5,
    "specific_heat": 465,
    "thermal_expansion": 1.3e-05,
    "thermal_diffusivity": 3.8e-06,
    "max_service_temp": 1273,
    "min_service_temp": 4,
    "electrical_resistivity": 1.1e-06,
    "electrical_conductivity": 909000.0,
    "dielectric_constant": 1.0,
    "dielectric_strength": 0.0,
    "bandgap": 0.0,
    "refractive_index": 1.0,
    "absorption_coefficient": 0.0,
    "reflectance": 58.0,
    "transmittance": 0.0,
    "emissivity": 0.42,
    "corrosion_resistance": "good",
    "oxidation_resistance": "good",
    "chemical_stability": "stable",
    "ph_stability_range": [
      2,
      12
    ],
    "water_absorption": 0.0,
    "cost_per_kg": 55.0,
    "availability": "uncommon",
    "notes": "Cryogenic-tough high entropy alloy with exceptional ductility and strength retention.",
    "data_source": "Nature Materials 2014; cryogenic mechanical testing dataset",
    "confidence": 0.85
  },
  "Zirconia PSZ": {
    "name": "Zirconia PSZ",
    "category": "ceramic",
    "subcategory": "partially_stabilized_zirconia",
    "cas_number": "1314-23-4",
    "density": 6020,
    "youngs_modulus": 210,
    "shear_modulus": 80,
    "bulk_modulus": 130,
    "poissons_ratio": 0.31,
    "tensile_strength": 340,
    "yield_strength": 0.0,
    "compressive_strength": 2100,
    "fracture_toughness": 12.0,
    "hardness_vickers": 1250,
    "hardness_rockwell": "HRA 90",
    "elongation_at_break": 0.3,
    "fatigue_limit": 0.0,
    "melting_point": 2950,
    "boiling_point": 0.0,
    "glass_transition_temp": 0.0,
    "thermal_conductivity": 2.2,
    "specific_heat": 460,
    "thermal_expansion": 1.1e-05,
    "thermal_diffusivity": 2.4e-06,
    "max_service_temp": 1573,
    "min_service_temp": 77,
    "electrical_resistivity": 1.0e12,
    "electrical_conductivity": 1.0e-12,
    "dielectric_constant": 29.0,
    "dielectric_strength": 18.0,
    "bandgap": 5.3,
    "refractive_index": 2.16,
    "absorption_coefficient": 0.0,
    "reflectance": 18.0,
    "transmittance": 0.0,
    "emissivity": 0.8,
    "corrosion_resistance": "excellent",
    "oxidation_resistance": "excellent",
    "chemical_stability": "stable",
    "ph_stability_range": [
      2,
      13
    ],
    "water_absorption": 0.0,
    "cost_per_kg": 95.0,
    "availability": "common",
    "notes": "Partially stabilized zirconia with transformation toughening for thermal barrier coatings.",
    "data_source": "Honeywell Thermal Barrier Coatings Manual",
    "confidence": 0.88
  },
  "Ultem 1000 Polyetherimide": {
    "name": "Ultem 1000 Polyetherimide",
    "category": "polymer",
    "subcategory": "polyetherimide",
    "cas_number": null,
    "density": 1270,
    "youngs_modulus": 3.2,
    "shear_modulus": 1.1,
    "bulk_modulus": 3.8,
    "poissons_ratio": 0.36,
    "tensile_strength": 110,
    "yield_strength": 95,
    "compressive_strength": 160,
    "fracture_toughness": 1.35,
    "hardness_vickers": 24,
    "hardness_rockwell": "M 110",
    "elongation_at_break": 60,
    "fatigue_limit": 35,
    "melting_point": 0.0,
    "boiling_point": 0.0,
    "glass_transition_temp": 489,
    "thermal_conductivity": 0.22,
    "specific_heat": 1460,
    "thermal_expansion": 5.5e-05,
    "thermal_diffusivity": 1.5e-07,
    "max_service_temp": 473,
    "min_service_temp": 213,
    "electrical_resistivity": 1.0e15,
    "electrical_conductivity": 1.0e-15,
    "dielectric_constant": 3.15,
    "dielectric_strength": 1.7,
    "bandgap": 3.2,
    "refractive_index": 1.66,
    "absorption_coefficient": 0.0,
    "reflectance": 4.0,
    "transmittance": 88.0,
    "emissivity": 0.85,
    "corrosion_resistance": "excellent",
    "oxidation_resistance": "good",
    "chemical_stability": "stable",
    "ph_stability_range": [
      3,
      12
    ],
    "water_absorption": 1.7,
    "cost_per_kg": 65.0,
    "availability": "common",
    "notes": "High-temperature amorphous thermoplastic used for aerospace connectors and 3D printing.",
    "data_source": "SABIC Ultem 1000 datasheet",
    "confidence": 0.84
  },
  "Kevlar 49 Fabric": {
    "name": "Kevlar 49 Fabric",
    "category": "composite",
    "subcategory": "aramid_fiber",
    "cas_number": null,
    "density": 1440,
    "youngs_modulus": 124,
    "shear_modulus": 4.4,
    "bulk_modulus": 5.5,
    "poissons_ratio": 0.36,
    "tensile_strength": 3620,
    "yield_strength": 0.0,
    "compressive_strength": 200,
    "fracture_toughness": 35.0,
    "hardness_vickers": 0.0,
    "hardness_rockwell": null,
    "elongation_at_break": 2.8,
    "fatigue_limit": 620,
    "melting_point": 0.0,
    "boiling_point": 0.0,
    "glass_transition_temp": 673,
    "thermal_conductivity": 0.04,
    "specific_heat": 1420,
    "thermal_expansion": -2.0e-06,
    "thermal_diffusivity": 1.4e-07,
    "max_service_temp": 523,
    "min_service_temp": 4,
    "electrical_resistivity": 1.0e12,
    "electrical_conductivity": 1.0e-12,
    "dielectric_constant": 2.7,
    "dielectric_strength": 0.0,
    "bandgap": 0.0,
    "refractive_index": 1.6,
    "absorption_coefficient": 0.0,
    "reflectance": 10.0,
    "transmittance": 0.0,
    "emissivity": 0.7,
    "corrosion_resistance": "excellent",
    "oxidation_resistance": "moderate",
    "chemical_stability": "stable",
    "ph_stability_range": [
      2,
      12
    ],
    "water_absorption": 3.5,
    "cost_per_kg": 45.0,
    "availability": "common",
    "notes": "Unidirectional para-aramid fiber used for ballistic panels and aerospace laminates.",
    "data_source": "DuPont Kevlar 49 technical guide",
    "confidence": 0.83
  },
  "Graphene Aerogel": {
    "name": "Graphene Aerogel",
    "category": "nanomaterial",
    "subcategory": "aerogel",
    "cas_number": null,
    "density": 10,
    "youngs_modulus": 0.002,
    "shear_modulus": 0.0008,
    "bulk_modulus": 0.0,
    "poissons_ratio": 0.25,
    "tensile_strength": 0.025,
    "yield_strength": 0.02,
    "compressive_strength": 0.12,
    "fracture_toughness": 0.01,
    "hardness_vickers": 0.1,
    "hardness_rockwell": null,
    "elongation_at_break": 5.0,
    "fatigue_limit": 0.0,
    "melting_point": 0.0,
    "boiling_point": 0.0,
    "glass_transition_temp": 0.0,
    "thermal_conductivity": 0.008,
    "specific_heat": 720,
    "thermal_expansion": 1.0e-06,
    "thermal_diffusivity": 6.0e-08,
    "max_service_temp": 423,
    "min_service_temp": 20,
    "electrical_resistivity": 2.5,
    "electrical_conductivity": 0.4,
    "dielectric_constant": 1.03,
    "dielectric_strength": 8.0,
    "bandgap": 0.0,
    "refractive_index": 1.01,
    "absorption_coefficient": 0.0,
    "reflectance": 2.0,
    "transmittance": 85.0,
    "emissivity": 0.4,
    "corrosion_resistance": "excellent",
    "oxidation_resistance": "moderate",
    "chemical_stability": "stable",
    "ph_stability_range": [
      3,
      11
    ],
    "water_absorption": 15.0,
    "cost_per_kg": 3200.0,
    "availability": "experimental",
    "notes": "Ultralight graphene aerogel with <10 kg/m³ density for energy storage and EMI shielding.",
    "data_source": "ACS Nano 2016 ultra-low density graphene aerogel study",
    "confidence": 0.75
  },
  "Tungsten Carbide WC-Co K20": {
    "name": "Tungsten Carbide WC-Co K20",
    "category": "ceramic",
    "subcategory": "cermet",
    "cas_number": "12070-12-1",
    "density": 14600,
    "youngs_modulus": 640,
    "shear_modulus": 270,
    "bulk_modulus": 320,
    "poissons_ratio": 0.22,
    "tensile_strength": 400,
    "yield_strength": 0.0,
    "compressive_strength": 5500,
    "fracture_toughness": 10.5,
    "hardness_vickers": 1800,
    "hardness_rockwell": "HRA 92",
    "elongation_at_break": 0.1,
    "fatigue_limit": 0.0,
    "melting_point": 3140,
    "boiling_point": 0.0,
    "glass_transition_temp": 0.0,
    "thermal_conductivity": 84,
    "specific_heat": 240,
    "thermal_expansion": 5.0e-06,
    "thermal_diffusivity": 1.2e-05,
    "max_service_temp": 1473,
    "min_service_temp": 4,
    "electrical_resistivity": 2.0e-07,
    "electrical_conductivity": 5000000.0,
    "dielectric_constant": 1.0,
    "dielectric_strength": 0.0,
    "bandgap": 0.0,
    "refractive_index": 1.9,
    "absorption_coefficient": 0.0,
    "reflectance": 30.0,
    "transmittance": 0.0,
    "emissivity": 0.3,
    "corrosion_resistance": "moderate",
    "oxidation_resistance": "poor",
    "chemical_stability": "stable",
    "ph_stability_range": [
      2,
      10
    ],
    "water_absorption": 0.0,
    "cost_per_kg": 120.0,
    "availability": "common",
    "notes": "Cobalt-bonded tungsten carbide grade for machining, with high hardness and thermal conductivity.",
    "data_source": "Sandvik Coromant grade K20 data sheet",
    "confidence": 0.82
  },
  "Fused Silica": {
    "name": "Fused Silica",
    "category": "ceramic",
    "subcategory": "glass",
    "cas_number": "60676-86-0",
    "density": 2200,
    "youngs_modulus": 72,
    "shear_modulus": 31,
    "bulk_modulus": 37,
    "poissons_ratio": 0.17,
    "tensile_strength": 50,
    "yield_strength": 0.0,
    "compressive_strength": 1100,
    "fracture_toughness": 0.8,
    "hardness_vickers": 550,
    "hardness_rockwell": null,
    "elongation_at_break": 0.1,
    "fatigue_limit": 0.0,
    "melting_point": 1983,
    "boiling_point": 0.0,
    "glass_transition_temp": 1473,
    "thermal_conductivity": 1.38,
    "specific_heat": 800,
    "thermal_expansion": 5.0e-07,
    "thermal_diffusivity": 7.0e-07,
    "max_service_temp": 1273,
    "min_service_temp": 4,
    "electrical_resistivity": 1.0e18,
    "electrical_conductivity": 1.0e-18,
    "dielectric_constant": 3.8,
    "dielectric_strength": 20.0,
    "bandgap": 9.0,
    "refractive_index": 1.458,
    "absorption_coefficient": 0.0,
    "reflectance": 7.0,
    "transmittance": 93.0,
    "emissivity": 0.75,
    "corrosion_resistance": "excellent",
    "oxidation_resistance": "excellent",
    "chemical_stability": "stable",
    "ph_stability_range": [
      4,
      9
    ],
    "water_absorption": 0.01,
    "cost_per_kg": 12.0,
    "availability": "common",
    "notes": "High-purity amorphous silica for optics and semiconductor use, nearly zero thermal expansion.",
    "data_source": "Corning HPFS fused silica data sheet",
    "confidence": 0.9
  },
  "Hastelloy X": {
    "name": "Hastelloy X",
    "category": "metal",
    "subcategory": "nickel_superalloy",
    "cas_number": "7440-02-0",
    "density": 8220,
    "youngs_modulus": 205,
    "shear_modulus": 79,
    "bulk_modulus": 150,
    "poissons_ratio": 0.3,
    "tensile_strength": 1000,
    "yield_strength": 690,
    "compressive_strength": 1100,
    "fracture_toughness": 120,
    "hardness_vickers": 360,
    "hardness_rockwell": "HRC 38",
    "elongation_at_break": 30,
    "fatigue_limit": 350,
    "melting_point": 1600,
    "boiling_point": 0.0,
    "glass_transition_temp": 0.0,
    "thermal_conductivity": 12.9,
    "specific_heat": 435,
    "thermal_expansion": 1.4e-05,
    "thermal_diffusivity": 4.0e-06,
    "max_service_temp": 1423,
    "min_service_temp": 4,
    "electrical_resistivity": 1.28e-06,
    "electrical_conductivity": 781000.0,
    "dielectric_constant": 1.0,
    "dielectric_strength": 0.0,
    "bandgap": 0.0,
    "refractive_index": 1.0,
    "absorption_coefficient": 0.0,
    "reflectance": 60.0,
    "transmittance": 0.0,
    "emissivity": 0.38,
    "corrosion_resistance": "excellent",
    "oxidation_resistance": "excellent",
    "chemical_stability": "stable",
    "ph_stability_range": [
      1,
      12
    ],
    "water_absorption": 0.0,
    "cost_per_kg": 65.0,
    "availability": "common",
    "notes": "High-temperature weldable nickel-base alloy for combustors and high-pressure vessels.",
    "data_source": "Haynes International Hastelloy X datasheet",
    "confidence": 0.86
  },
  "Magnesium AZ31B": {
    "name": "Magnesium AZ31B",
    "category": "metal",
    "subcategory": "magnesium_alloy",
    "cas_number": null,
    "density": 1770,
    "youngs_modulus": 45,
    "shear_modulus": 17,
    "bulk_modulus": 35,
    "poissons_ratio": 0.35,
    "tensile_strength": 275,
    "yield_strength": 200,
    "compressive_strength": 220,
    "fracture_toughness": 35,
    "hardness_vickers": 63,
    "hardness_rockwell": "HRB 60",
    "elongation_at_break": 12,
    "fatigue_limit": 140,
    "melting_point": 865,
    "boiling_point": 0.0,
    "glass_transition_temp": 0.0,
    "thermal_conductivity": 76,
    "specific_heat": 1020,
    "thermal_expansion": 2.6e-05,
    "thermal_diffusivity": 1.9e-05,
    "max_service_temp": 473,
    "min_service_temp": 173,
    "electrical_resistivity": 9.0e-08,
    "electrical_conductivity": 11111111.1,
    "dielectric_constant": 1.0,
    "dielectric_strength": 0.0,
    "bandgap": 0.0,
    "refractive_index": 1.0,
    "absorption_coefficient": 0.0,
    "reflectance": 70.0,
    "transmittance": 0.0,
    "emissivity": 0.2,
    "corrosion_resistance": "poor",
    "oxidation_resistance": "poor",
    "chemical_stability": "reactive",
    "ph_stability_range": [
      6,
      10
    ],
    "water_absorption": 0.0,
    "cost_per_kg": 3.2,
    "availability": "common",
    "notes": "Lightweight structural magnesium alloy used for automotive and aerospace panels.",
    "data_source": "ASM Magnesium Alloys Handbook",
    "confidence": 0.82
  },
  "PEEK 450G": {
    "name": "PEEK 450G",
    "category": "polymer",
    "subcategory": "polyetheretherketone",
    "cas_number": null,
    "density": 1320,
    "youngs_modulus": 3.6,
    "shear_modulus": 1.3,
    "bulk_modulus": 4.1,
    "poissons_ratio": 0.37,
    "tensile_strength": 98,
    "yield_strength": 94,
    "compressive_strength": 160,
    "fracture_toughness": 3.5,
    "hardness_vickers": 23,
    "hardness_rockwell": "M 96",
    "elongation_at_break": 45,
    "fatigue_limit": 38,
    "melting_point": 616,
    "boiling_point": 0.0,
    "glass_transition_temp": 416,
    "thermal_conductivity": 0.25,
    "specific_heat": 1340,
    "thermal_expansion": 4.7e-05,
    "thermal_diffusivity": 1.8e-07,
    "max_service_temp": 503,
    "min_service_temp": 213,
    "electrical_resistivity": 1.0e16,
    "electrical_conductivity": 1.0e-16,
    "dielectric_constant": 3.2,
    "dielectric_strength": 1.5,
    "bandgap": 3.1,
    "refractive_index": 1.66,
    "absorption_coefficient": 0.0,
    "reflectance": 5.0,
    "transmittance": 60.0,
    "emissivity": 0.85,
    "corrosion_resistance": "excellent",
    "oxidation_resistance": "good",
    "chemical_stability": "stable",
    "ph_stability_range": [
      2,
      13
    ],
    "water_absorption": 0.1,
    "cost_per_kg": 85.0,
    "availability": "common",
    "notes": "Highly crystalline high-performance thermoplastic for bearings and medical implants.",
    "data_source": "Victrex PEEK 450G datasheet",
    "confidence": 0.83
  },
  "GFRP Epoxy Laminate": {
    "name": "GFRP Epoxy Laminate",
    "category": "composite",
    "subcategory": "glass_fiber_epoxy",
    "cas_number": null,
    "density": 1850,
    "youngs_modulus": 26,
    "shear_modulus": 5.0,
    "bulk_modulus": 7.5,
    "poissons_ratio": 0.28,
    "tensile_strength": 900,
    "yield_strength": 0.0,
    "compressive_strength": 450,
    "fracture_toughness": 20.0,
    "hardness_vickers": 45,
    "hardness_rockwell": "M 105",
    "elongation_at_break": 2.2,
    "fatigue_limit": 260,
    "melting_point": 0.0,
    "boiling_point": 0.0,
    "glass_transition_temp": 393,
    "thermal_conductivity": 0.29,
    "specific_heat": 1100,
    "thermal_expansion": 1.4e-05,
    "thermal_diffusivity": 1.9e-07,
    "max_service_temp": 373,
    "min_service_temp": 203,
    "electrical_resistivity": 6.0e12,
    "electrical_conductivity": 1.7e-13,
    "dielectric_constant": 4.6,
    "dielectric_strength": 0.9,
    "bandgap": 0.0,
    "refractive_index": 1.52,
    "absorption_coefficient": 0.0,
    "reflectance": 12.0,
    "transmittance": 0.0,
    "emissivity": 0.72,
    "corrosion_resistance": "excellent",
    "oxidation_resistance": "good",
    "chemical_stability": "stable",
    "ph_stability_range": [
      3,
      11
    ],
    "water_absorption": 0.8,
    "cost_per_kg": 12.5,
    "availability": "common",
    "notes": "Quasi-isotropic glass fiber reinforced epoxy panel for marine and wind turbine blades.",
    "data_source": "Gurit E-glass epoxy datasheet",
    "confidence": 0.8
  },
  "Borosilicate Glass": {
    "name": "Borosilicate Glass",
    "category": "ceramic",
    "subcategory": "glass",
    "cas_number": null,
    "density": 2230,
    "youngs_modulus": 64,
    "shear_modulus": 26,
    "bulk_modulus": 39,
    "poissons_ratio": 0.2,
    "tensile_strength": 45,
    "yield_strength": 0.0,
    "compressive_strength": 1200,
    "fracture_toughness": 0.75,
    "hardness_vickers": 550,
    "hardness_rockwell": null,
    "elongation_at_break": 0.0,
    "fatigue_limit": 0.0,
    "melting_point": 1500,
    "boiling_point": 0.0,
    "glass_transition_temp": 823,
    "thermal_conductivity": 1.2,
    "specific_heat": 830,
    "thermal_expansion": 3.3e-06,
    "thermal_diffusivity": 8.0e-07,
    "max_service_temp": 823,
    "min_service_temp": 77,
    "electrical_resistivity": 1.0e14,
    "electrical_conductivity": 1.0e-14,
    "dielectric_constant": 4.6,
    "dielectric_strength": 14.0,
    "bandgap": 8.0,
    "refractive_index": 1.474,
    "absorption_coefficient": 0.0,
    "reflectance": 7.0,
    "transmittance": 92.0,
    "emissivity": 0.8,
    "corrosion_resistance": "excellent",
    "oxidation_resistance": "excellent",
    "chemical_stability": "stable",
    "ph_stability_range": [
      5,
      9
    ],
    "water_absorption": 0.02,
    "cost_per_kg": 5.5,
    "availability": "common",
    "notes": "Low-expansion borosilicate for labware and telescope mirrors (e.g., Pyrex).",
    "data_source": "Schott Borofloat glass data sheet",
    "confidence": 0.88
  },
  "YBCO Superconductor": {
    "name": "YBCO Superconductor",
    "category": "ceramic",
    "subcategory": "superconductor",
    "cas_number": "12026-90-9",
    "density": 6300,
    "youngs_modulus": 180,
    "shear_modulus": 70,
    "bulk_modulus": 120,
    "poissons_ratio": 0.28,
    "tensile_strength": 60,
    "yield_strength": 0.0,
    "compressive_strength": 350,
    "fracture_toughness": 2.5,
    "hardness_vickers": 580,
    "hardness_rockwell": null,
    "elongation_at_break": 0.2,
    "fatigue_limit": 0.0,
    "melting_point": 1250,
    "boiling_point": 0.0,
    "glass_transition_temp": 0.0,
    "thermal_conductivity": 6.2,
    "specific_heat": 420,
    "thermal_expansion": 1.2e-05,
    "thermal_diffusivity": 2.1e-06,
    "max_service_temp": 123,
    "min_service_temp": 4,
    "electrical_resistivity": 0.0,
    "electrical_conductivity": 1.0e11,
    "dielectric_constant": 35.0,
    "dielectric_strength": 0.0,
    "bandgap": 0.0,
    "refractive_index": 2.1,
    "absorption_coefficient": 0.0,
    "reflectance": 25.0,
    "transmittance": 0.0,
    "emissivity": 0.7,
    "corrosion_resistance": "poor",
    "oxidation_resistance": "moderate",
    "chemical_stability": "reactive",
    "ph_stability_range": [
      5,
      10
    ],
    "water_absorption": 0.5,
    "cost_per_kg": 420.0,
    "availability": "experimental",
    "notes": "Yttrium barium copper oxide with Tc ≈ 92 K for magnetic levitation and HTS cables.",
    "data_source": "IEEE Trans. Applied Superconductivity 2019 material dataset",
    "confidence": 0.78
  },
  "Lithium Hexafluorophosphate Electrolyte": {
    "name": "Lithium Hexafluorophosphate Electrolyte",
    "category": "composite",
    "subcategory": "electrolyte_solution",
    "cas_number": "21324-40-3",
    "density": 1260,
    "youngs_modulus": 0.002,
    "shear_modulus": 0.0008,
    "bulk_modulus": 0.01,
    "poissons_ratio": 0.48,
    "tensile_strength": 0.01,
    "yield_strength": 0.0,
    "compressive_strength": 0.05,
    "fracture_toughness": 0.0,
    "hardness_vickers": 0.0,
    "hardness_rockwell": null,
    "elongation_at_break": 0.0,
    "fatigue_limit": 0.0,
    "melting_point": 0.0,
    "boiling_point": 0.0,
    "glass_transition_temp": 0.0,
    "thermal_conductivity": 0.22,
    "specific_heat": 1900,
    "thermal_expansion": 7.0e-05,
    "thermal_diffusivity": 1.2e-07,
    "max_service_temp": 333,
    "min_service_temp": 243,
    "electrical_resistivity": 1.8e-02,
    "electrical_conductivity": 55.0,
    "dielectric_constant": 18.0,
    "dielectric_strength": 0.0,
    "bandgap": 0.0,
    "refractive_index": 1.44,
    "absorption_coefficient": 0.0,
    "reflectance": 4.0,
    "transmittance": 90.0,
    "emissivity": 0.9,
    "corrosion_resistance": "poor",
    "oxidation_resistance": "poor",
    "chemical_stability": "reactive",
    "ph_stability_range": [
      4,
      10
    ],
    "water_absorption": 5.0,
    "cost_per_kg": 22.0,
    "availability": "common",
    "notes": "1 M LiPF6 in EC:DMC electrolyte for lithium-ion batteries with 55 mS/cm ionic conductivity at 298 K.",
    "data_source": "Electrochimica Acta 2018 electrolyte property database",
    "confidence": 0.76
  }
}
